6         
# ORCA AIMD Position Step 550, t=550.00 fs, E_Pot=-2519406.30501299 kJ mol^-1, Unit is Angstrom
Cl -3.528660 -0.022161 0.087845
C -0.325321 0.153718 -0.173375
Cl 1.501277 -0.051384 0.013684
H -0.799676 0.363622 0.836961
H -0.832213 -0.664343 -0.639614
H -0.562915 1.055774 -0.802403
