6         
# ORCA AIMD Position Step 0, t=0.00 fs, E_Pot=-2519058.78351914 kJ mol^-1, Unit is Angstrom
Cl -4.000000 0.000000 0.000000
C 0.000000 0.000000 0.000000
Cl 1.800000 0.000000 0.000000
H 0.000000 0.900000 0.900000
H 0.000000 -0.900000 0.900000
H 0.000000 0.000000 -0.900000
