6         
# ORCA AIMD Position Step 5450, t=5450.00 fs, E_Pot=-2519411.78738024 kJ mol^-1, Unit is Angstrom
Cl -3.272115 0.058704 -0.002199
C -1.417373 -0.090248 0.252979
Cl 1.646098 -0.021221 -0.085427
H -1.262454 -0.659941 1.183785
H -0.984011 -0.559710 -0.634273
H -1.052497 0.976662 0.418021
