6         
# ORCA AIMD Position Step 3200, t=3200.00 fs, E_Pot=-2519370.57282280 kJ mol^-1, Unit is Angstrom
Cl -3.357195 -0.054651 0.012718
C -0.491108 0.297392 0.207659
Cl 1.384743 -0.073542 -0.085357
H -0.486766 0.396573 1.281640
H -1.095658 -0.712443 0.084637
H -0.568923 1.280967 -0.385831
